TITLE = "VolumeData"
VARIABLES = "x" "y" "z"  "n"  "ux"  "uy"  "uz"  "p"  "T"  "rank" 
ZONE T= my_zone, SolutionTime = 0.0, DATAPACKING=Block, ZONETYPE=FEBRICK Nodes= 3362 Elements= 1600 VarLocation=([4-10]=CellCentered)   -2.6981813248e-04
   -2.6905428274e-04
   -2.6981813248e-04
   -2.6905423012e-04
   -2.5686286071e-04
   -2.5613524081e-04
   -2.5686286071e-04
   -2.5613516256e-04
   -2.4328065708e-04
   -2.4259099114e-04
   -2.4328065708e-04
   -2.4259091424e-04
   -2.2920041369e-04
   -2.2855011826e-04
   -2.2920041369e-04
   -2.2855004136e-04
   -2.1477304792e-04
   -2.1416304714e-04
   -2.1477304792e-04
   -2.1416299587e-04
   -2.0016546793e-04
   -1.9959629198e-04
   -2.0016546793e-04
   -1.9959624071e-04
   -1.8555316612e-04
   -1.8502484063e-04
   -1.8555316612e-04
   -1.8502478801e-04
   -1.7111187909e-04
   -1.7062391299e-04
   -1.7111187909e-04
   -1.7062387522e-04
   -1.5700918548e-04
   -1.5656063982e-04
   -1.5700918548e-04
   -1.5656058855e-04
   -1.4339700370e-04
   -1.4298649025e-04
   -1.4339700370e-04
   -1.4298646462e-04
   -1.3040552720e-04
   -1.3003133438e-04
   -1.3040552720e-04
   -1.3003129579e-04
   -1.1813916130e-04
   -1.1779924334e-04
   -1.1813916130e-04
   -1.1779921757e-04
   -1.0667452302e-04
   -1.0636664771e-04
   -1.0667452302e-04
   -1.0636662194e-04
   -9.6060547914e-05
   -9.5782341540e-05
   -9.6060547914e-05
   -9.5782322248e-05
   -8.6320214648e-05
   -8.6069226044e-05
   -8.6320214648e-05
   -8.6069206752e-05
   -7.7453516609e-05
   -7.7227314308e-05
   -7.7453516609e-05
   -7.7227295016e-05
   -6.9441257992e-05
   -6.9237455317e-05
   -6.9441257992e-05
   -6.9237436025e-05
   -6.2249093105e-05
   -6.2065387025e-05
   -6.2249093105e-05
   -6.2065367733e-05
   -5.5831508757e-05
   -5.5665737758e-05
   -5.5831508757e-05
   -5.5665724807e-05
   -5.0135519817e-05
   -4.9985670381e-05
   -5.0135519817e-05
   -4.9985657430e-05
   -4.5103863187e-05
   -4.4968076268e-05
   -4.5103863187e-05
   -4.4968066554e-05
   -4.0677600199e-05
   -4.0554183767e-05
   -4.0677600199e-05
   -4.0554177291e-05
   -3.6798190572e-05
   -3.6685616915e-05
   -3.6798190572e-05
   -3.6685610575e-05
   -3.3409021334e-05
   -3.3305920183e-05
   -3.3409021334e-05
   -3.3305913707e-05
   -3.0456470179e-05
   -3.0361622629e-05
   -3.0456470179e-05
   -3.0361616154e-05
   -2.7890601460e-05
   -2.7802923384e-05
   -2.7890601460e-05
   -2.7802916908e-05
   -2.5665523971e-05
   -2.5584064932e-05
   -2.5665523971e-05
   -2.5584060075e-05
   -2.3739543928e-05
   -2.3663467627e-05
   -2.3739543928e-05
   -2.3663464389e-05
   -2.2075128282e-05
   -2.2003703105e-05
   -2.2075128282e-05
   -2.2003699867e-05
   -2.0638741875e-05
   -2.0571330918e-05
   -2.0638741875e-05
   -2.0571329299e-05
   -1.9400626062e-05
   -1.9336675926e-05
   -1.9400626062e-05
   -1.9336674307e-05
   -1.8334513102e-05
   -1.8273543108e-05
   -1.8334513102e-05
   -1.8273539870e-05
   -1.7417320189e-05
   -1.7358913737e-05
   -1.7417320189e-05
   -1.7358912118e-05
   -1.6628849278e-05
   -1.6572646161e-05
   -1.6628849278e-05
   -1.6572644542e-05
   -1.5951478951e-05
   -1.5897168608e-05
   -1.5951478951e-05
   -1.5897166989e-05
   -1.5369882594e-05
   -1.5317198175e-05
   -1.5369882594e-05
   -1.5317196556e-05
   -1.4870760061e-05
   -1.4819470062e-05
   -1.4870760061e-05
   -1.4819470062e-05
   -1.4442594705e-05
   -1.4392501215e-05
   -1.4442594705e-05
   -1.4392501215e-05
   -1.4075428349e-05
   -1.4026362596e-05
   -1.4075428349e-05
   -1.4026360977e-05
   -1.3760669848e-05
   -1.3712482084e-05
   -1.3760669848e-05
   -1.3712482084e-05
   -1.3490906624e-05
   -1.3443473959e-05
   -1.3490906624e-05
   -1.3443473149e-05
   -2.6676710593e-04
   -2.6676702903e-04
   -2.5395647153e-04
   -2.5395639463e-04
   -2.4052590703e-04
   -2.4052583013e-04
   -2.2660285969e-04
   -2.2660278144e-04
   -2.1233653622e-04
   -2.1233648496e-04
   -1.9789203161e-04
   -1.9789198035e-04
   -1.8344287129e-04
   -1.8344282002e-04
   -1.6916280733e-04
   -1.6916276821e-04
   -1.5521755261e-04
   -1.5521751348e-04
   -1.4175734454e-04
   -1.4175730542e-04
   -1.2891090487e-04
   -1.2891086615e-04
   -1.1678147100e-04
   -1.1678144523e-04
   -1.0544482944e-04
   -1.0544480368e-04
   -9.4949349693e-05
   -9.4949330401e-05
   -8.5317752730e-05
   -8.5317733438e-05
   -7.6550045298e-05
   -7.6550032347e-05
   -6.8627237057e-05
   -6.8627224106e-05
   -6.1515361953e-05
   -6.1515349136e-05
   -5.5169421604e-05
   -5.5169415128e-05
   -4.9537028933e-05
   -4.9537022457e-05
   -4.4561548168e-05
   -4.4561538589e-05
   -4.0184699942e-05
   -4.0184693467e-05
   -3.6348600307e-05
   -3.6348593832e-05
   -3.2997266452e-05
   -3.2997260111e-05
   -3.0077677899e-05
   -3.0077674661e-05
   -2.7540451994e-05
   -2.7540451994e-05
   -2.5340216930e-05
   -2.5340215311e-05
   -2.3435739099e-05
   -2.3435737480e-05
   -2.1789903399e-05
   -2.1789903399e-05
   -2.0369552824e-05
   -2.0369552824e-05
   -1.9145259793e-05
   -1.9145261412e-05
   -1.8091049590e-05
   -1.8091049590e-05
   -1.7184096276e-05
   -1.7184097895e-05
   -1.6404427237e-05
   -1.6404428856e-05
   -1.5734618833e-05
   -1.5734620452e-05
   -1.5159514974e-05
   -1.5159516593e-05
   -1.4665964995e-05
   -1.4665966614e-05
   -1.4242579333e-05
   -1.4242582571e-05
   -1.3879514078e-05
   -1.3879515697e-05
   -1.3568267799e-05
   -1.3568271037e-05
   -1.3301516906e-05
   -1.3301519307e-05
   -2.6296949396e-04
   -2.6296941707e-04
   -2.5033890650e-04
   -2.5033882960e-04
   -2.3709708519e-04
   -2.3709700694e-04
   -2.2336970186e-04
   -2.2336962496e-04
   -2.0930389374e-04
   -2.0930381684e-04
   -1.9506238950e-04
   -1.9506232474e-04
   -1.8081629160e-04
   -1.8081622684e-04
   -1.6673691028e-04
   -1.6673685766e-04
   -1.5298764200e-04
   -1.5298759074e-04
   -1.3971658859e-04
   -1.3971653732e-04
   -1.2705068409e-04
   -1.2705064551e-04
   -1.1509172401e-04
   -1.1509168529e-04
   -1.0391439482e-04
   -1.0391436258e-04
   -9.3566416417e-05
   -9.3566390649e-05
   -8.4070181949e-05
   -8.4070156317e-05
   -7.5425691555e-05
   -7.5425672263e-05
   -6.7614231456e-05
   -6.7614212164e-05
   -6.0602299011e-05
   -6.0602286195e-05
   -5.4345545292e-05
   -5.4345532341e-05
   -4.8792307008e-05
   -4.8792294192e-05
   -4.3886746105e-05
   -4.3886736526e-05
   -3.9571409938e-05
   -3.9571400224e-05
   -3.5789221854e-05
   -3.5789212141e-05
   -3.2484986912e-05
   -3.2484980437e-05
   -2.9606427849e-05
   -2.9606424611e-05
   -2.7104862997e-05
   -2.7104856522e-05
   -2.4935546393e-05
   -2.4935543155e-05
   -2.3057834521e-05
   -2.3057829664e-05
   -2.1435128576e-05
   -2.1435125338e-05
   -2.0034739550e-05
   -2.0034736313e-05
   -1.8827651473e-05
   -1.8827649854e-05
   -1.7788256309e-05
   -1.7788254690e-05
   -1.6894050013e-05
   -1.6894048394e-05
   -1.6125337883e-05
   -1.6125336265e-05
   -1.5464942490e-05
   -1.5464942490e-05
   -1.4897921573e-05
   -1.4897921573e-05
   -1.4411307944e-05
   -1.4411307944e-05
   -1.3993872851e-05
   -1.3993871232e-05
   -1.3635908912e-05
   -1.3635908912e-05
   -1.3329037127e-05
   -1.3329037127e-05
   -1.3066034979e-05
   -1.3066034979e-05
   -2.5768301205e-04
   -2.5768293515e-04
   -2.4530305326e-04
   -2.4530300064e-04
   -2.3232400377e-04
   -2.3232395251e-04
   -2.1886904502e-04
   -2.1886896812e-04
   -2.0508235027e-04
   -2.0508228686e-04
   -1.9112345893e-04
   -1.9112340767e-04
   -1.7716005084e-04
   -1.7716001172e-04
   -1.6336006620e-04
   -1.6336002707e-04
   -1.4988364611e-04
   -1.4988360834e-04
   -1.3687594599e-04
   -1.3687590686e-04
   -1.2446138976e-04
   -1.2446136400e-04
   -1.1273974161e-04
   -1.1273971598e-04
   -1.0178422114e-04
   -1.0178420185e-04
   -9.1641595918e-05
   -9.1641570150e-05
   -8.2333802434e-05
   -8.2333783007e-05
   -7.3860853369e-05
   -7.3860840553e-05
   -6.6204402034e-05
   -6.6204389218e-05
   -5.9331621006e-05
   -5.9331614665e-05
   -5.3199026664e-05
   -5.3199017085e-05
   -4.7755988446e-05
   -4.7755978732e-05
   -4.2947777655e-05
   -4.2947767941e-05
   -3.8718073803e-05
   -3.8718067463e-05
   -3.5010939141e-05
   -3.5010932665e-05
   -3.1772272299e-05
   -3.1772269061e-05
   -2.8950837916e-05
   -2.8950834678e-05
   -2.6498912990e-05
   -2.6498911371e-05
   -2.4372647488e-05
   -2.4372645869e-05
   -2.2532195342e-05
   -2.2532195342e-05
   -2.0941691246e-05
   -2.0941691246e-05
   -1.9569092544e-05
   -1.9569092544e-05
   -1.8385959190e-05
   -1.8385959190e-05
   -1.7367188115e-05
   -1.7367189734e-05
   -1.6490727082e-05
   -1.6490727082e-05
   -1.5737269256e-05
   -1.5737270875e-05
   -1.5089979469e-05
   -1.5089981088e-05
   -1.4534211452e-05
   -1.4534211452e-05
   -1.4057253670e-05
   -1.4057255289e-05
   -1.3648100914e-05
   -1.3648102533e-05
   -1.3297241394e-05
   -1.3297243000e-05
   -1.2996460039e-05
   -1.2996461658e-05
   -1.2738676645e-05
   -1.2738678251e-05
   -2.5093755874e-04
   -2.5093753311e-04
   -2.3887744641e-04
   -2.3887744641e-04
   -2.2623373634e-04
   -2.2623373634e-04
   -2.1312640048e-04
   -2.1312638833e-04
   -1.9969591288e-04
   -1.9969589939e-04
   -1.8609766585e-04
   -1.8609766585e-04
   -1.7249503159e-04
   -1.7249503159e-04
   -1.5905159947e-04
   -1.5905158732e-04
   -1.4592335809e-04
   -1.4592335809e-04
   -1.3325172846e-04
   -1.3325172846e-04
   -1.2115792043e-04
   -1.2115792043e-04
   -1.0973912344e-04
   -1.0973912344e-04
   -9.9066659857e-05
   -9.9066659857e-05
   -8.9186081466e-05
   -8.9186081466e-05
   -8.0118771488e-05
   -8.0118771488e-05
   -7.1864736262e-05
   -7.1864736262e-05
   -6.4406105058e-05
   -6.4406105058e-05
   -5.7710893232e-05
   -5.7710893232e-05
   -5.1736739605e-05
   -5.1736742843e-05
   -4.6434329248e-05
   -4.6434332351e-05
   -4.1750345424e-05
   -4.1750348662e-05
   -3.7629924797e-05
   -3.7629928034e-05
   -3.4018570580e-05
   -3.4018573817e-05
   -3.0863580411e-05
   -3.0863583649e-05
   -2.8115044412e-05
   -2.8115044412e-05
   -2.5726466713e-05
   -2.5726469816e-05
   -2.3655135373e-05
   -2.3655138611e-05
   -2.1862235704e-05
   -2.1862238942e-05
   -2.0312825315e-05
   -2.0312826934e-05
   -1.8975688405e-05
   -1.8975691643e-05
   -1.7823123018e-05
   -1.7823126121e-05
   -1.6830675534e-05
   -1.6830677153e-05
   -1.5976858584e-05
   -1.5976860203e-05
   -1.5242866922e-05
   -1.5242870160e-05
   -1.4612301137e-05
   -1.4612304375e-05
   -1.4070891492e-05
   -1.4070894730e-05
   -1.3606257788e-05
   -1.3606259407e-05
   -1.3207676817e-05
   -1.3207679232e-05
   -1.2865881298e-05
   -1.2865883713e-05
   -1.2572870975e-05
   -1.2572873390e-05
   -1.2321748095e-05
   -1.2321750510e-05
   -2.4277129441e-04
   -2.4277126877e-04
   -2.3109847228e-04
   -2.3109844664e-04
   -2.1886078454e-04
   -2.1886075890e-04
   -2.0617437170e-04
   -2.0617434607e-04
   -1.9317517625e-04
   -1.9317515061e-04
   -1.8001361099e-04
   -1.8001359884e-04
   -1.6684780148e-04
   -1.6684778799e-04
   -1.5383607298e-04
   -1.5383606083e-04
   -1.4112942243e-04
   -1.4112940894e-04
   -1.2886472900e-04
   -1.2886471605e-04
   -1.1715929193e-04
   -1.1715927911e-04
   -1.0610718048e-04
   -1.0610716766e-04
   -9.5777439619e-05
   -9.5777433144e-05
   -8.6214160742e-05
   -8.6214147926e-05
   -7.7438026081e-05
   -7.7438019605e-05
   -6.9449054791e-05
   -6.9449048316e-05
   -6.2229942224e-05
   -6.2229935748e-05
   -5.5749732952e-05
   -5.5749726477e-05
   -4.9967432834e-05
   -4.9967426493e-05
   -4.4835299844e-05
   -4.4835293368e-05
   -4.0301734907e-05
   -4.0301728431e-05
   -3.6313630663e-05
   -3.6313627560e-05
   -3.2818249946e-05
   -3.2818243470e-05
   -2.9764575811e-05
   -2.9764572574e-05
   -2.7104303395e-05
   -2.7104296919e-05
   -2.4792432157e-05
   -2.4792427436e-05
   -2.2787617732e-05
   -2.2787613011e-05
   -2.1052293206e-05
   -2.1052288349e-05
   -1.9552638629e-05
   -1.9552633773e-05
   -1.8258441792e-05
   -1.8258438554e-05
   -1.7142889920e-05
   -1.7142885064e-05
   -1.6182311466e-05
   -1.6182308228e-05
   -1.5355913434e-05
   -1.5355908578e-05
   -1.4645493624e-05
   -1.4645488902e-05
   -1.4035177285e-05
   -1.4035172563e-05
   -1.3511152832e-05
   -1.3511149594e-05
   -1.3061439436e-05
   -1.3061436212e-05
   -1.2675658503e-05
   -1.2675655292e-05
   -1.2344839226e-05
   -1.2344836015e-05
   -1.2061238729e-05
   -1.2061234709e-05
   -1.1818179580e-05
   -1.1818176356e-05
   -2.3323048612e-04
   -2.3323033232e-04
   -2.2201023669e-04
   -2.2201008154e-04
   -2.1024701874e-04
   -2.1024687708e-04
   -1.9805245738e-04
   -1.9805231572e-04
   -1.8555724577e-04
   -1.8555711626e-04
   -1.7290595651e-04
   -1.7290584049e-04
   -1.6025058895e-04
   -1.6025048642e-04
   -1.4774333401e-04
   -1.4774323148e-04
   -1.3552932011e-04
   -1.3552922972e-04
   -1.2374012569e-04
   -1.2374004852e-04
   -1.1248852150e-04
   -1.1248844434e-04
   -1.0186490337e-04
   -1.0186483268e-04
   -9.1935653162e-05
   -9.1935588945e-05
   -8.2743138396e-05
   -8.2743086996e-05
   -7.4307262612e-05
   -7.4307217553e-05
   -6.6628025676e-05
   -6.6627980616e-05
   -5.9688798560e-05
   -5.9688759976e-05
   -5.3459832061e-05
   -5.3459799818e-05
   -4.7901711148e-05
   -4.7901682143e-05
   -4.2968552841e-05
   -4.2968527209e-05
   -3.8610755935e-05
   -3.8610730167e-05
   -3.4777274480e-05
   -3.4777251950e-05
   -3.1417407356e-05
   -3.1417388064e-05
   -2.8482125506e-05
   -2.8482109452e-05
   -2.5924992824e-05
   -2.5924978389e-05
   -2.3702753821e-05
   -2.3702740870e-05
   -2.1775665636e-05
   -2.1775654439e-05
   -2.0107620261e-05
   -2.0107610548e-05
   -1.8666108389e-05
   -1.8666098810e-05
   -1.7422088685e-05
   -1.7422080590e-05
   -1.6349785692e-05
   -1.6349779217e-05
   -1.5426449291e-05
   -1.5426442815e-05
   -1.4632090543e-05
   -1.4632085821e-05
   -1.3949215252e-05
   -1.3949208776e-05
   -1.3362560115e-05
   -1.3362555285e-05
   -1.2858853277e-05
   -1.2858848461e-05
   -1.2426575691e-05
   -1.2426570861e-05
   -1.2055751411e-05
   -1.2055747390e-05
   -1.1737757858e-05
   -1.1737753837e-05
   -1.1465152099e-05
   -1.1465148875e-05
   -1.1231517239e-05
   -1.1231513219e-05
   -2.2236922162e-04
   -2.2236922162e-04
   -2.1166426546e-04
   -2.1166426546e-04
   -2.0044128817e-04
   -2.0044128817e-04
   -1.8880678021e-04
   -1.8880676807e-04
   -1.7688542725e-04
   -1.7688542725e-04
   -1.6481516436e-04
   -1.6481516436e-04
   -1.5274102823e-04
   -1.5274101474e-04
   -1.4080817292e-04
   -1.4080817292e-04
   -1.2915511308e-04
   -1.2915511308e-04
   -1.1790735582e-04
   -1.1790735582e-04
   -1.0717249248e-04
   -1.0717249248e-04
   -9.7036782700e-05
   -9.7036782700e-05
   -8.7563552522e-05
   -8.7563546046e-05
   -7.8793220299e-05
   -7.8793213958e-05
   -7.0744769896e-05
   -7.0744769896e-05
   -6.3418213859e-05
   -6.3418213859e-05
   -5.6797682295e-05
   -5.6797682295e-05
   -5.0854792900e-05
   -5.0854789797e-05
   -4.5551935455e-05
   -4.5551935455e-05
   -4.0845339791e-05
   -4.0845336554e-05
   -3.6687681969e-05
   -3.6687678731e-05
   -3.3030257924e-05
   -3.3030254686e-05
   -2.9824698307e-05
   -2.9824695069e-05
   -2.7024225825e-05
   -2.7024222587e-05
   -2.4584531620e-05
   -2.4584528382e-05
   -2.2464351596e-05
   -2.2464348358e-05
   -2.0625769829e-05
   -2.0625766591e-05
   -1.9034331353e-05
   -1.9034328115e-05
   -1.7659022867e-05
   -1.7659019630e-05
   -1.6472135804e-05
   -1.6472132701e-05
   -1.5449080421e-05
   -1.5449077183e-05
   -1.4568151740e-05
   -1.4568148502e-05
   -1.3810274428e-05
   -1.3810271190e-05
   -1.3158760543e-05
   -1.3158757332e-05
   -1.2599048312e-05
   -1.2599045101e-05
   -1.2118475236e-05
   -1.2118472012e-05
   -1.1706050571e-05
   -1.1706047360e-05
   -1.1352256766e-05
   -1.1352253542e-05
   -1.1048868455e-05
   -1.1048864435e-05
   -1.0788782055e-05
   -1.0788778831e-05
   -1.0565877377e-05
   -1.0565874166e-05
   -2.1024883326e-04
   -2.1024874287e-04
   -2.0011907270e-04
   -2.0011899580e-04
   -1.8949912140e-04
   -1.8949904450e-04
   -1.7848974428e-04
   -1.7848968087e-04
   -1.6720894766e-04
   -1.6720888290e-04
   -1.5578724256e-04
   -1.5578717916e-04
   -1.4436184636e-04
   -1.4436179509e-04
   -1.3307016447e-04
   -1.3307011293e-04
   -1.2204323797e-04
   -1.2204318657e-04
   -1.1139984500e-04
   -1.1139979360e-04
   -1.0124177418e-04
   -1.0124173559e-04
   -9.1650666394e-05
   -9.1650634286e-05
   -8.2686438274e-05
   -8.2686406031e-05
   -7.4387352999e-05
   -7.4387320755e-05
   -6.6771358599e-05
   -6.6771332831e-05
   -5.9838468027e-05
   -5.9838442259e-05
   -5.3573663340e-05
   -5.3573640810e-05
   -4.7950090214e-05
   -4.7950070922e-05
   -4.2932161660e-05
   -4.2932145471e-05
   -3.8478458708e-05
   -3.8478442654e-05
   -3.4544195324e-05
   -3.4544179270e-05
   -3.1083288729e-05
   -3.1083275913e-05
   -2.8049968596e-05
   -2.8049958882e-05
   -2.5399967886e-05
   -2.5399958307e-05
   -2.3091361583e-05
   -2.3091353488e-05
   -2.1085101337e-05
   -2.1085093243e-05
   -1.9345309027e-05
   -1.9345300933e-05
   -1.7839380639e-05
   -1.7839374299e-05
   -1.6537969269e-05
   -1.6537962794e-05
   -1.5414855475e-05
   -1.5414849000e-05
   -1.4446769736e-05
   -1.4446764879e-05
   -1.3613173226e-05
   -1.3613168370e-05
   -1.2896018135e-05
   -1.2896013305e-05
   -1.2279510859e-05
   -1.2279506030e-05
   -1.1749873542e-05
   -1.1749868712e-05
   -1.1295121576e-05
   -1.1295117555e-05
   -1.0904856872e-05
   -1.0904852851e-05
   -1.0570073278e-05
   -1.0570069258e-05
   -1.0282985315e-05
   -1.0282982091e-05
   -1.0036874523e-05
   -1.0036870503e-05
   -9.8259464242e-06
   -9.8259424039e-06
   -1.9693810040e-04
   -1.9693811389e-04
   -1.8744019994e-04
   -1.8744022557e-04
   -1.7748268992e-04
   -1.7748270206e-04
   -1.6716003098e-04
   -1.6716005661e-04
   -1.5658289846e-04
   -1.5658291060e-04
   -1.4587364410e-04
   -1.4587364410e-04
   -1.3516092932e-04
   -1.3516094281e-04
   -1.2457358068e-04
   -1.2457359350e-04
   -1.1423447983e-04
   -1.1423447983e-04
   -1.0425497532e-04
   -1.0425498166e-04
   -9.4730538790e-05
   -9.4730545130e-05
   -8.5737690251e-05
   -8.5737696727e-05
   -7.7332628373e-05
   -7.7332628373e-05
   -6.9551203889e-05
   -6.9551203889e-05
   -6.2410271125e-05
   -6.2410271125e-05
   -5.5909830216e-05
   -5.5909830216e-05
   -5.0035805693e-05
   -5.0035805693e-05
   -4.4763012598e-05
   -4.4763009361e-05
   -4.0058086300e-05
   -4.0058083062e-05
   -3.5882191065e-05
   -3.5882184589e-05
   -3.2193332398e-05
   -3.2193329161e-05
   -2.8948306482e-05
   -2.8948300007e-05
   -2.6104194291e-05
   -2.6104189434e-05
   -2.3619491858e-05
   -2.3619487136e-05
   -2.1454889111e-05
   -2.1454884255e-05
   -1.9573772539e-05
   -1.9573767683e-05
   -1.7942502701e-05
   -1.7942496226e-05
   -1.6530508528e-05
   -1.6530503806e-05
   -1.5310274776e-05
   -1.5310269920e-05
   -1.4257217507e-05
   -1.4257211166e-05
   -1.3349518077e-05
   -1.3349511642e-05
   -1.2567918395e-05
   -1.2567911960e-05
   -1.1895497383e-05
   -1.1895490961e-05
   -1.1317445572e-05
   -1.1317439137e-05
   -1.0820844760e-05
   -1.0820838325e-05
   -1.0394458949e-05
   -1.0394452514e-05
   -1.0028538195e-05
   -1.0028530964e-05
   -9.7146368255e-06
   -9.7146295809e-06
   -9.4454574200e-06
   -9.4454501754e-06
   -9.2146972970e-06
   -9.2146908618e-06
   -9.0169262181e-06
   -9.0169189870e-06
   -1.8148269517e-04
   -1.8148236059e-04
   -1.7272699154e-04
   -1.7272668260e-04
   -1.6354757361e-04
   -1.6354727816e-04
   -1.5403157105e-04
   -1.5403128774e-04
   -1.4428095758e-04
   -1.4428068776e-04
   -1.3440854294e-04
   -1.3440829849e-04
   -1.2453295012e-04
   -1.2453273130e-04
   -1.1477293187e-04
   -1.1477272599e-04
   -1.0524174718e-04
   -1.0524156060e-04
   -9.6042066046e-05
   -9.6041898759e-05
   -8.7261891398e-05
   -8.7261743537e-05
   -7.8971767322e-05
   -7.8971638618e-05
   -7.1223498225e-05
   -7.1223375998e-05
   -6.4050136964e-05
   -6.4050027553e-05
   -5.7467212517e-05
   -5.7467116057e-05
   -5.1474731359e-05
   -5.1474650953e-05
   -4.6059718340e-05
   -4.6059647513e-05
   -4.1198950215e-05
   -4.1198892339e-05
   -3.6861680802e-05
   -3.6861629267e-05
   -3.3012100918e-05
   -3.3012055858e-05
   -2.9611497057e-05
   -2.9611461576e-05
   -2.6620047436e-05
   -2.6620015193e-05
   -2.3998181337e-05
   -2.3998153951e-05
   -2.1707640303e-05
   -2.1707617773e-05
   -1.9712184250e-05
   -1.9712164958e-05
   -1.7978064192e-05
   -1.7978048137e-05
   -1.6474265208e-05
   -1.6474252257e-05
   -1.5172607629e-05
   -1.5172598051e-05
   -1.4047726391e-05
   -1.4047718432e-05
   -1.3076957352e-05
   -1.3076951726e-05
   -1.2240188550e-05
   -1.2240183720e-05
   -1.1519665048e-05
   -1.1519661824e-05
   -1.0899788500e-05
   -1.0899786085e-05
   -1.0366906565e-05
   -1.0366905756e-05
   -9.9091118061e-06
   -9.9091118061e-06
   -9.5160447440e-06
   -9.5160455400e-06
   -9.1787177101e-06
   -9.1787193290e-06
   -8.8893460329e-06
   -8.8893476518e-06
   -8.6412000166e-06
   -8.6412032409e-06
   -8.4284731075e-06
   -8.4284755224e-06
   -8.2461564288e-06
   -8.2461596396e-06
   -1.6485385223e-04
   -1.6485328561e-04
   -1.5689734182e-04
   -1.5689680083e-04
   -1.4855579148e-04
   -1.4855529097e-04
   -1.3990838071e-04
   -1.3990789234e-04
   -1.3104775588e-04
   -1.3104731837e-04
   -1.2207647066e-04
   -1.2207605905e-04
   -1.1310229071e-04
   -1.1310191768e-04
   -1.0423313543e-04
   -1.0423278804e-04
   -9.5571925623e-05
   -9.5571610341e-05
   -8.7211965195e-05
   -8.7211682156e-05
   -7.9233209490e-05
   -7.9232958559e-05
   -7.1699782137e-05
   -7.1699556974e-05
   -6.4658746973e-05
   -6.4658547578e-05
   -5.8140145820e-05
   -5.8139972057e-05
   -5.2158089220e-05
   -5.2157938122e-05
   -4.6712583919e-05
   -4.6712451978e-05
   -4.1791834818e-05
   -4.1791722304e-05
   -3.7374742004e-05
   -3.7374648647e-05
   -3.3433363651e-05
   -3.3433283245e-05
   -2.9935158747e-05
   -2.9935091293e-05
   -2.6844953531e-05
   -2.6844897274e-05
   -2.4126552710e-05
   -2.4126506031e-05
   -2.1744002613e-05
   -2.1743965648e-05
   -1.9662534610e-05
   -1.9662503986e-05
   -1.7849216725e-05
   -1.7849194195e-05
   -1.6273381292e-05
   -1.6273363619e-05
   -1.4906844189e-05
   -1.4906831238e-05
   -1.3723998731e-05
   -1.3723990636e-05
   -1.2701792426e-05
   -1.2701788405e-05
   -1.1819631823e-05
   -1.1819631823e-05
   -1.1059240008e-05
   -1.1059242422e-05
   -1.0404483921e-05
   -1.0404488750e-05
   -9.8411877220e-06
   -9.8411941571e-06
   -9.3569454434e-06
   -9.3569542799e-06
   -8.9409368113e-06
   -8.9409472667e-06
   -8.5837480059e-06
   -8.5837600668e-06
   -8.2772107690e-06
   -8.2772236258e-06
   -8.0142520340e-06
   -8.0142657138e-06
   -7.7887564945e-06
   -7.7887709702e-06
   -7.5954458736e-06
   -7.5954611588e-06
   -7.4297704845e-06
   -7.4297865656e-06
   -1.4715906713e-04
   -1.4715832108e-04
   -1.4005354691e-04
   -1.4005283999e-04
   -1.3260417331e-04
   -1.3260350429e-04
   -1.2488162962e-04
   -1.2488101214e-04
   -1.1696870886e-04
   -1.1696812997e-04
   -1.0895693915e-04
   -1.0895641166e-04
   -1.0094259633e-04
   -1.0094210094e-04
   -9.3022039582e-05
   -9.3021589256e-05
   -8.5287189755e-05
   -8.5286784489e-05
   -7.7821366550e-05
   -7.7820999867e-05
   -7.0695988666e-05
   -7.0695660568e-05
   -6.3968296808e-05
   -6.3968007293e-05
   -5.7680336733e-05
   -5.7680079327e-05
   -5.1858930659e-05
   -5.1858705496e-05
   -4.6516687186e-05
   -4.6516491028e-05
   -4.1653603347e-05
   -4.1653436059e-05
   -3.7259154480e-05
   -3.7259009722e-05
   -3.3314495273e-05
   -3.3314373045e-05
   -2.9794666064e-05
   -2.9794563129e-05
   -2.6670612164e-05
   -2.6670526901e-05
   -2.3910919725e-05
   -2.3910849032e-05
   -2.1483264805e-05
   -2.1483208548e-05
   -1.9355540531e-05
   -1.9355495606e-05
   -1.7496696636e-05
   -1.7496661155e-05
   -1.5877322945e-05
   -1.5877297177e-05
   -1.4470031297e-05
   -1.4470012005e-05
   -1.3249651115e-05
   -1.3249639864e-05
   -1.2193317160e-05
   -1.2193311534e-05
   -1.1280441553e-05
   -1.1280440744e-05
   -1.0492632439e-05
   -1.0492636459e-05
   -9.8135685983e-06
   -9.8135758294e-06
   -9.2288417706e-06
   -9.2288522260e-06
   -8.7257927095e-06
   -8.7258063892e-06
   -8.2933438427e-06
   -8.2933591144e-06
   -7.9218288142e-06
   -7.9218465143e-06
   -7.6028429781e-06
   -7.6028630931e-06
   -7.3290913560e-06
   -7.3291130629e-06
   -7.0942575458e-06
   -7.0942800621e-06
   -6.8928799968e-06
   -6.8929033225e-06
   -6.7202453370e-06
   -6.7202698635e-06
   -6.5722895387e-06
   -6.5723148747e-06
   -1.2851279428e-04
   -1.2851171353e-04
   -1.2230451933e-04
   -1.2230349011e-04
   -1.1579579919e-04
   -1.1579483418e-04
   -1.0904841600e-04
   -1.0904751535e-04
   -1.0213468913e-04
   -1.0213385282e-04
   -9.5134599807e-05
   -9.5133827858e-05
   -8.8132258857e-05
   -8.8131544784e-05
   -8.1211861000e-05
   -8.1211211278e-05
   -7.4453715443e-05
   -7.4453130072e-05
   -6.7930636927e-05
   -6.7930109433e-05
   -6.1704999310e-05
   -6.1704529826e-05
   -5.5826844951e-05
   -5.5826426733e-05
   -5.0332883282e-05
   -5.0332519837e-05
   -4.5246572156e-05
   -4.5246253771e-05
   -4.0578912059e-05
   -4.0578638598e-05
   -3.6329912569e-05
   -3.6329674589e-05
   -3.2490364927e-05
   -3.2490165532e-05
   -2.9043813467e-05
   -2.9043643077e-05
   -2.5968447439e-05
   -2.5968305919e-05
   -2.3238879115e-05
   -2.3238761609e-05
   -2.0827663675e-05
   -2.0827568834e-05
   -1.8706558849e-05
   -1.8706483300e-05
   -1.6847510702e-05
   -1.6847451207e-05
   -1.5223389425e-05
   -1.5223346120e-05
   -1.3808500509e-05
   -1.3808470019e-05
   -1.2578912338e-05
   -1.2578893032e-05
   -1.1512635423e-05
   -1.1512625777e-05
   -1.0589689003e-05
   -1.0589687397e-05
   -9.7920857056e-06
   -9.7920913313e-06
   -9.1037567825e-06
   -9.1037680339e-06
   -8.5104403485e-06
   -8.5104580351e-06
   -7.9995494956e-06
   -7.9995712025e-06
   -7.5600227596e-06
   -7.5600484867e-06
   -7.1821801047e-06
   -7.1822090562e-06
   -6.8575782874e-06
   -6.8576104633e-06
   -6.5788720759e-06
   -6.5789066531e-06
   -6.3396879744e-06
   -6.3397249665e-06
   -6.1345073388e-06
   -6.1345463276e-06
   -5.9585584895e-06
   -5.9585990971e-06
   -5.8077231381e-06
   -5.8077649464e-06
   -5.6784502759e-06
   -5.6784932984e-06
   -1.0903557576e-04
   -1.0903426350e-04
   -1.0376494418e-04
   -1.0376370261e-04
   -9.8239258236e-05
   -9.8238087495e-05
   -9.2510953313e-05
   -9.2509853265e-05
   -8.6641419104e-05
   -8.6640396224e-05
   -8.0698568293e-05
   -8.0697629056e-05
   -7.4753806900e-05
   -7.4752944831e-05
   -6.8878611637e-05
   -6.8877826736e-05
   -6.3141171751e-05
   -6.3140457677e-05
   -5.7603282611e-05
   -5.7602645705e-05
   -5.2317922736e-05
   -5.2317353420e-05
   -4.7327559343e-05
   -4.7327054378e-05
   -4.2663366543e-05
   -4.2662922693e-05
   -3.8345251250e-05
   -3.8344865275e-05
   -3.4382560637e-05
   -3.4382226062e-05
   -3.0775297672e-05
   -3.0775008157e-05
   -2.7515646399e-05
   -2.7515401944e-05
   -2.4589634556e-05
   -2.4589428684e-05
   -2.1978749515e-05
   -2.1978577506e-05
   -1.9661434562e-05
   -1.9661293042e-05
   -1.7614390901e-05
   -1.7614276768e-05
   -1.5813641414e-05
   -1.5813551294e-05
   -1.4235369658e-05
   -1.4235300449e-05
   -1.2856543850e-05
   -1.2856492382e-05
   -1.1655349963e-05
   -1.1655313767e-05
   -1.0611469424e-05
   -1.0611446907e-05
   -9.7062345674e-06
   -9.7062241120e-06
   -8.9226832774e-06
   -8.9226824679e-06
   -8.2455436853e-06
   -8.2455517259e-06
   -7.6611747039e-06
   -7.6611907850e-06
   -7.1574686761e-06
   -7.1574911924e-06
   -6.7237388342e-06
   -6.7237669763e-06
   -6.3505946709e-06
   -6.3506280339e-06
   -6.0298188613e-06
   -6.0298562581e-06
   -5.7542422702e-06
   -5.7542832826e-06
   -5.5176297649e-06
   -5.5176739881e-06
   -5.3145707903e-06
   -5.3146174283e-06
   -5.1403789426e-06
   -5.1404279955e-06
   -4.9910038740e-06
   -4.9910549371e-06
   -4.8629496723e-06
   -4.8630023408e-06
   -4.7532012684e-06
   -4.7532555423e-06
   -8.8853355641e-05
   -8.8851760341e-05
   -8.4554680744e-05
   -8.4553169088e-05
   -8.0047983082e-05
   -8.0046561410e-05
   -7.5376029099e-05
   -7.5374697411e-05
   -7.0588892723e-05
   -7.0587657496e-05
   -6.5741968292e-05
   -6.5740823318e-05
   -6.0893474328e-05
   -6.0892425815e-05
   -5.6101725546e-05
   -5.6100767017e-05
   -5.1422322019e-05
   -5.1421460085e-05
   -4.6905675758e-05
   -4.6904900571e-05
   -4.2594984106e-05
   -4.2594295800e-05
   -3.8524891845e-05
   -3.8524280707e-05
   -3.4720822051e-05
   -3.4720284843e-05
   -3.1199008195e-05
   -3.1198541815e-05
   -2.7967076553e-05
   -2.7966671286e-05
   -2.5025025776e-05
   -2.5024680004e-05
   -2.2366486940e-05
   -2.2366192569e-05
   -1.9980060906e-05
   -1.9979813213e-05
   -1.7850647975e-05
   -1.7850442104e-05
   -1.5960668417e-05
   -1.5960499646e-05
   -1.4291119345e-05
   -1.4290982548e-05
   -1.2822445907e-05
   -1.2822338155e-05
   -1.1535223167e-05
   -1.1535140346e-05
   -1.0410666007e-05
   -1.0410604893e-05
   -9.4309832421e-06
   -9.4309414338e-06
   -8.5796043684e-06
   -8.5795794507e-06
   -7.8413041694e-06
   -7.8412937139e-06
   -7.2022469379e-06
   -7.2022485433e-06
   -6.6499784490e-06
   -6.6499913193e-06
   -6.1733729005e-06
   -6.1733950121e-06
   -5.7625552725e-06
   -5.7625854246e-06
   -5.4088093060e-06
   -5.4088462981e-06
   -5.1044765642e-06
   -5.1045195867e-06
   -4.8428550883e-06
   -4.8429029406e-06
   -4.6180973260e-06
   -4.6181499945e-06
   -4.4251188107e-06
   -4.4251747035e-06
   -4.2595053314e-06
   -4.2595648398e-06
   -4.1174365061e-06
   -4.1174984159e-06
   -3.9956077912e-06
   -3.9956721294e-06
   -3.8911677892e-06
   -3.8912345422e-06
   -3.8016579037e-06
   -3.8017262486e-06
   -6.8096607457e-05
   -6.8094709691e-05
   -6.4797866282e-05
   -6.4796065111e-05
   -6.1339484645e-05
   -6.1337792886e-05
   -5.7754290106e-05
   -5.7752707488e-05
   -5.4080706519e-05
   -5.4079233312e-05
   -5.0361239819e-05
   -5.0359879126e-05
   -4.6640573237e-05
   -4.6639325328e-05
   -4.2963448287e-05
   -4.2962312892e-05
   -3.9372538055e-05
   -3.9371511937e-05
   -3.5906526906e-05
   -3.5905603858e-05
   -3.2598560919e-05
   -3.2597737569e-05
   -2.9475224330e-05
   -2.9474497305e-05